<?xml version="1.0" encoding="UTF-8"?>

<!-- generated on 2026-04-17 22:29:18 by Eclipse SUMO sumo Version 1.18.0
<configuration xmlns:xsi="http://www.w3.org/2001/XMLSchema-instance" xsi:noNamespaceSchemaLocation="http://sumo.dlr.de/xsd/sumoConfiguration.xsd">

    <input>
        <net-file value="sumo/scenarios/../networks/city.net.xml"/>
        <route-files value="/home/vivek/research/NIT hackathon/final_year_project/sumo/routes/city_passenger.rou.xml,/home/vivek/research/NIT hackathon/final_year_project/sumo/routes/city_freight.rou.xml,/home/vivek/research/NIT hackathon/final_year_project/sumo/scenarios/demo_controlled_group.rou.xml,/home/vivek/research/NIT hackathon/final_year_project/sumo/scenarios/demo_emergency_group.rou.xml"/>
        <junction-taz value="true"/>
    </input>

    <output>
        <summary-output value="/home/vivek/research/NIT hackathon/final_year_project/evaluation/hackathon_kpi/analysis_fullrun_phase3/20260417T165916Z_demo_seed42_summary.xml"/>
        <tripinfo-output value="/home/vivek/research/NIT hackathon/final_year_project/evaluation/hackathon_kpi/analysis_fullrun_phase3/20260417T165916Z_demo_seed42_tripinfo.xml"/>
        <statistic-output value="/home/vivek/research/NIT hackathon/final_year_project/evaluation/hackathon_kpi/analysis_fullrun_phase3/20260417T165916Z_demo_seed42_statistics.xml"/>
    </output>

    <time>
        <begin value="0"/>
        <end value="3600"/>
        <step-length value="1.0"/>
    </time>

    <report>
        <duration-log.disable value="true"/>
        <no-step-log value="true"/>
    </report>

    <traci_server>
        <remote-port value="47689"/>
    </traci_server>

    <random_number>
        <seed value="42"/>
    </random_number>

</configuration>
-->

<tripinfos xmlns:xsi="http://www.w3.org/2001/XMLSchema-instance" xsi:noNamespaceSchemaLocation="http://sumo.dlr.de/xsd/tripinfo_file.xsd">
</tripinfos>
